r 0.000000000 _25_ RTR  --- 0 cbr 1000 [0 0 0 0] ------- [25:3 7:0 32 0] [0] 0 0
r 0.000000000 _7_ RTR  --- 1 cbr 1000 [0 0 0 0] ------- [7:3 17:0 32 0] [0] 0 0
r 0.000000000 _17_ RTR  --- 2 cbr 1000 [0 0 0 0] ------- [17:3 24:0 32 0] [0] 0 0
r 0.000000000 _15_ RTR  --- 3 cbr 1000 [0 0 0 0] ------- [15:2 24:0 32 0] [0] 0 0
r 0.000000000 _9_ RTR  --- 4 cbr 1000 [0 0 0 0] ------- [9:2 24:0 32 0] [0] 0 0
s 0.024889846 _25_ RTR  --- 5 message 32 [0 0 0 0] ------- [25:255 -1:255 32 0] 
s 0.025204846 _25_ MAC  --- 5 message 90 [0 ffffffff 19 800] ------- [25:255 -1:255 32 0] 
r 0.025925253 _31_ MAC  --- 5 message 32 [0 ffffffff 19 800] ------- [25:255 -1:255 32 0] 
r 0.025925268 _9_ MAC  --- 5 message 32 [0 ffffffff 19 800] ------- [25:255 -1:255 32 0] 
r 0.025925300 _26_ MAC  --- 5 message 32 [0 ffffffff 19 800] ------- [25:255 -1:255 32 0] 
r 0.025925390 _7_ MAC  --- 5 message 32 [0 ffffffff 19 800] ------- [25:255 -1:255 32 0] 
r 0.025925477 _30_ MAC  --- 5 message 32 [0 ffffffff 19 800] ------- [25:255 -1:255 32 0] 
r 0.025925489 _32_ MAC  --- 5 message 32 [0 ffffffff 19 800] ------- [25:255 -1:255 32 0] 
r 0.025925579 _27_ MAC  --- 5 message 32 [0 ffffffff 19 800] ------- [25:255 -1:255 32 0] 
r 0.025925591 _20_ MAC  --- 5 message 32 [0 ffffffff 19 800] ------- [25:255 -1:255 32 0] 
r 0.025925611 _22_ MAC  --- 5 message 32 [0 ffffffff 19 800] ------- [25:255 -1:255 32 0] 
r 0.025925659 _5_ MAC  --- 5 message 32 [0 ffffffff 19 800] ------- [25:255 -1:255 32 0] 
r 0.025950253 _31_ RTR  --- 5 message 32 [0 ffffffff 19 800] ------- [25:255 -1:255 32 0] 
r 0.025950268 _9_ RTR  --- 5 message 32 [0 ffffffff 19 800] ------- [25:255 -1:255 32 0] 
r 0.025950300 _26_ RTR  --- 5 message 32 [0 ffffffff 19 800] ------- [25:255 -1:255 32 0] 
r 0.025950390 _7_ RTR  --- 5 message 32 [0 ffffffff 19 800] ------- [25:255 -1:255 32 0] 
r 0.025950477 _30_ RTR  --- 5 message 32 [0 ffffffff 19 800] ------- [25:255 -1:255 32 0] 
r 0.025950489 _32_ RTR  --- 5 message 32 [0 ffffffff 19 800] ------- [25:255 -1:255 32 0] 
r 0.025950579 _27_ RTR  --- 5 message 32 [0 ffffffff 19 800] ------- [25:255 -1:255 32 0] 
r 0.025950591 _20_ RTR  --- 5 message 32 [0 ffffffff 19 800] ------- [25:255 -1:255 32 0] 
r 0.025950611 _22_ RTR  --- 5 message 32 [0 ffffffff 19 800] ------- [25:255 -1:255 32 0] 
r 0.025950659 _5_ RTR  --- 5 message 32 [0 ffffffff 19 800] ------- [25:255 -1:255 32 0] 
r 0.050000000 _25_ RTR  --- 6 cbr 1000 [0 0 0 0] ------- [25:3 7:0 32 0] [1] 0 0
r 0.050000000 _7_ RTR  --- 7 cbr 1000 [0 0 0 0] ------- [7:3 17:0 32 0] [1] 0 0
r 0.050000000 _17_ RTR  --- 8 cbr 1000 [0 0 0 0] ------- [17:3 24:0 32 0] [1] 0 0
r 0.050000000 _15_ RTR  --- 9 cbr 1000 [0 0 0 0] ------- [15:2 24:0 32 0] [1] 0 0
r 0.050000000 _9_ RTR  --- 10 cbr 1000 [0 0 0 0] ------- [9:2 24:0 32 0] [1] 0 0
s 0.062841902 _37_ RTR  --- 11 message 32 [0 0 0 0] ------- [37:255 -1:255 32 0] 
s 0.063396902 _37_ MAC  --- 11 message 90 [0 ffffffff 25 800] ------- [37:255 -1:255 32 0] 
r 0.064117319 _34_ MAC  --- 11 message 32 [0 ffffffff 25 800] ------- [37:255 -1:255 32 0] 
r 0.064117358 _33_ MAC  --- 11 message 32 [0 ffffffff 25 800] ------- [37:255 -1:255 32 0] 
r 0.064117359 _36_ MAC  --- 11 message 32 [0 ffffffff 25 800] ------- [37:255 -1:255 32 0] 
r 0.064117360 _35_ MAC  --- 11 message 32 [0 ffffffff 25 800] ------- [37:255 -1:255 32 0] 
r 0.064117368 _32_ MAC  --- 11 message 32 [0 ffffffff 25 800] ------- [37:255 -1:255 32 0] 
r 0.064117609 _23_ MAC  --- 11 message 32 [0 ffffffff 25 800] ------- [37:255 -1:255 32 0] 
r 0.064117725 _3_ MAC  --- 11 message 32 [0 ffffffff 25 800] ------- [37:255 -1:255 32 0] 
r 0.064142319 _34_ RTR  --- 11 message 32 [0 ffffffff 25 800] ------- [37:255 -1:255 32 0] 
r 0.064142358 _33_ RTR  --- 11 message 32 [0 ffffffff 25 800] ------- [37:255 -1:255 32 0] 
r 0.064142359 _36_ RTR  --- 11 message 32 [0 ffffffff 25 800] ------- [37:255 -1:255 32 0] 
r 0.064142360 _35_ RTR  --- 11 message 32 [0 ffffffff 25 800] ------- [37:255 -1:255 32 0] 
r 0.064142368 _32_ RTR  --- 11 message 32 [0 ffffffff 25 800] ------- [37:255 -1:255 32 0] 
r 0.064142609 _23_ RTR  --- 11 message 32 [0 ffffffff 25 800] ------- [37:255 -1:255 32 0] 
r 0.064142725 _3_ RTR  --- 11 message 32 [0 ffffffff 25 800] ------- [37:255 -1:255 32 0] 
r 0.100000000 _25_ RTR  --- 12 cbr 1000 [0 0 0 0] ------- [25:3 7:0 32 0] [2] 0 0
r 0.100000000 _7_ RTR  --- 13 cbr 1000 [0 0 0 0] ------- [7:3 17:0 32 0] [2] 0 0
r 0.100000000 _17_ RTR  --- 14 cbr 1000 [0 0 0 0] ------- [17:3 24:0 32 0] [2] 0 0
r 0.100000000 _15_ RTR  --- 15 cbr 1000 [0 0 0 0] ------- [15:2 24:0 32 0] [2] 0 0
r 0.100000000 _9_ RTR  --- 16 cbr 1000 [0 0 0 0] ------- [9:2 24:0 32 0] [2] 0 0
s 0.126565322 _24_ RTR  --- 17 message 32 [0 0 0 0] ------- [24:255 -1:255 32 0] 
s 0.126680322 _24_ MAC  --- 17 message 90 [0 ffffffff 18 800] ------- [24:255 -1:255 32 0] 
r 0.127400938 _17_ MAC  --- 17 message 32 [0 ffffffff 18 800] ------- [24:255 -1:255 32 0] 
r 0.127400986 _15_ MAC  --- 17 message 32 [0 ffffffff 18 800] ------- [24:255 -1:255 32 0] 
r 0.127401041 _1_ MAC  --- 17 message 32 [0 ffffffff 18 800] ------- [24:255 -1:255 32 0] 
r 0.127401126 _7_ MAC  --- 17 message 32 [0 ffffffff 18 800] ------- [24:255 -1:255 32 0] 
r 0.127425938 _17_ RTR  --- 17 message 32 [0 ffffffff 18 800] ------- [24:255 -1:255 32 0] 
s 0.127425938 _17_ RTR  --- 2 cbr 1040 [0 0 0 0] ------- [17:3 24:0 32 24] [0] 0 0
s 0.127425938 _17_ RTR  --- 8 cbr 1040 [0 0 0 0] ------- [17:3 24:0 32 24] [1] 0 0
D 0.127425938 _17_ IFQ  ARP 2 cbr 1040 [0 0 11 800] ------- [17:3 24:0 32 24] [0] 0 0
s 0.127425938 _17_ RTR  --- 14 cbr 1040 [0 0 0 0] ------- [17:3 24:0 32 24] [2] 0 0
D 0.127425938 _17_ IFQ  ARP 8 cbr 1040 [0 0 11 800] ------- [17:3 24:0 32 24] [1] 0 0
r 0.127425986 _15_ RTR  --- 17 message 32 [0 ffffffff 18 800] ------- [24:255 -1:255 32 0] 
s 0.127425986 _15_ RTR  --- 3 cbr 1040 [0 0 0 0] ------- [15:2 24:0 32 24] [0] 0 0
s 0.127425986 _15_ RTR  --- 9 cbr 1040 [0 0 0 0] ------- [15:2 24:0 32 24] [1] 0 0
D 0.127425986 _15_ IFQ  ARP 3 cbr 1040 [0 0 f 800] ------- [15:2 24:0 32 24] [0] 0 0
s 0.127425986 _15_ RTR  --- 15 cbr 1040 [0 0 0 0] ------- [15:2 24:0 32 24] [2] 0 0
D 0.127425986 _15_ IFQ  ARP 9 cbr 1040 [0 0 f 800] ------- [15:2 24:0 32 24] [1] 0 0
r 0.127426041 _1_ RTR  --- 17 message 32 [0 ffffffff 18 800] ------- [24:255 -1:255 32 0] 
r 0.127426126 _7_ RTR  --- 17 message 32 [0 ffffffff 18 800] ------- [24:255 -1:255 32 0] 
s 0.127600938 _17_ MAC  --- 0 ARP 86 [0 ffffffff 11 806] ------- [REQUEST 17/17 0/24]
r 0.128289240 _20_ MAC  --- 0 ARP 28 [0 ffffffff 11 806] ------- [REQUEST 17/17 0/24]
r 0.128289249 _7_ MAC  --- 0 ARP 28 [0 ffffffff 11 806] ------- [REQUEST 17/17 0/24]
r 0.128289301 _11_ MAC  --- 0 ARP 28 [0 ffffffff 11 806] ------- [REQUEST 17/17 0/24]
r 0.128289389 _1_ MAC  --- 0 ARP 28 [0 ffffffff 11 806] ------- [REQUEST 17/17 0/24]
r 0.128289498 _9_ MAC  --- 0 ARP 28 [0 ffffffff 11 806] ------- [REQUEST 17/17 0/24]
r 0.128289512 _10_ MAC  --- 0 ARP 28 [0 ffffffff 11 806] ------- [REQUEST 17/17 0/24]
r 0.128289533 _18_ MAC  --- 0 ARP 28 [0 ffffffff 11 806] ------- [REQUEST 17/17 0/24]
r 0.128289554 _24_ MAC  --- 0 ARP 28 [0 ffffffff 11 806] ------- [REQUEST 17/17 0/24]
r 0.128289760 _0_ MAC  --- 0 ARP 28 [0 ffffffff 11 806] ------- [REQUEST 17/17 0/24]
r 0.128289771 _22_ MAC  --- 0 ARP 28 [0 ffffffff 11 806] ------- [REQUEST 17/17 0/24]
s 0.128438938 _17_ MAC  --- 0 ARP 86 [0 ffffffff 11 806] ------- [REQUEST 17/17 0/24]
r 0.129127240 _20_ MAC  --- 0 ARP 28 [0 ffffffff 11 806] ------- [REQUEST 17/17 0/24]
r 0.129127249 _7_ MAC  --- 0 ARP 28 [0 ffffffff 11 806] ------- [REQUEST 17/17 0/24]
r 0.129127301 _11_ MAC  --- 0 ARP 28 [0 ffffffff 11 806] ------- [REQUEST 17/17 0/24]
r 0.129127389 _1_ MAC  --- 0 ARP 28 [0 ffffffff 11 806] ------- [REQUEST 17/17 0/24]
r 0.129127498 _9_ MAC  --- 0 ARP 28 [0 ffffffff 11 806] ------- [REQUEST 17/17 0/24]
r 0.129127512 _10_ MAC  --- 0 ARP 28 [0 ffffffff 11 806] ------- [REQUEST 17/17 0/24]
r 0.129127533 _18_ MAC  --- 0 ARP 28 [0 ffffffff 11 806] ------- [REQUEST 17/17 0/24]
r 0.129127554 _24_ MAC  --- 0 ARP 28 [0 ffffffff 11 806] ------- [REQUEST 17/17 0/24]
r 0.129127760 _0_ MAC  --- 0 ARP 28 [0 ffffffff 11 806] ------- [REQUEST 17/17 0/24]
r 0.129127771 _22_ MAC  --- 0 ARP 28 [0 ffffffff 11 806] ------- [REQUEST 17/17 0/24]
s 0.129256938 _17_ MAC  --- 0 ARP 86 [0 ffffffff 11 806] ------- [REQUEST 17/17 0/24]
r 0.129945240 _20_ MAC  --- 0 ARP 28 [0 ffffffff 11 806] ------- [REQUEST 17/17 0/24]
r 0.129945249 _7_ MAC  --- 0 ARP 28 [0 ffffffff 11 806] ------- [REQUEST 17/17 0/24]
r 0.129945301 _11_ MAC  --- 0 ARP 28 [0 ffffffff 11 806] ------- [REQUEST 17/17 0/24]
r 0.129945389 _1_ MAC  --- 0 ARP 28 [0 ffffffff 11 806] ------- [REQUEST 17/17 0/24]
r 0.129945498 _9_ MAC  --- 0 ARP 28 [0 ffffffff 11 806] ------- [REQUEST 17/17 0/24]
r 0.129945512 _10_ MAC  --- 0 ARP 28 [0 ffffffff 11 806] ------- [REQUEST 17/17 0/24]
r 0.129945533 _18_ MAC  --- 0 ARP 28 [0 ffffffff 11 806] ------- [REQUEST 17/17 0/24]
r 0.129945554 _24_ MAC  --- 0 ARP 28 [0 ffffffff 11 806] ------- [REQUEST 17/17 0/24]
r 0.129945760 _0_ MAC  --- 0 ARP 28 [0 ffffffff 11 806] ------- [REQUEST 17/17 0/24]
r 0.129945771 _22_ MAC  --- 0 ARP 28 [0 ffffffff 11 806] ------- [REQUEST 17/17 0/24]
s 0.130155554 _24_ MAC  --- 0 RTS 44 [52e 11 18 0] 
r 0.130508170 _17_ MAC  --- 0 RTS 44 [52e 11 18 0] 
s 0.130518170 _17_ MAC  --- 0 CTS 38 [3f4 18 0 0] 
r 0.130822786 _24_ MAC  --- 0 CTS 38 [3f4 18 0 0] 
s 0.130832786 _24_ MAC  --- 0 ARP 86 [13a 11 18 806] ------- [REPLY 24/24 17/17]
r 0.131521402 _17_ MAC  --- 0 ARP 28 [13a 11 18 806] ------- [REPLY 24/24 17/17]
s 0.131531402 _17_ MAC  --- 0 ACK 38 [0 18 0 0] 
r 0.131836019 _24_ MAC  --- 0 ACK 38 [0 18 0 0] 
s 0.131985402 _17_ MAC  --- 0 RTS 44 [24ce 18 11 0] 
r 0.132338019 _24_ MAC  --- 0 RTS 44 [24ce 18 11 0] 
s 0.132348019 _24_ MAC  --- 0 CTS 38 [2394 11 0 0] 
r 0.132652635 _17_ MAC  --- 0 CTS 38 [2394 11 0 0] 
s 0.132662635 _17_ MAC  --- 14 cbr 1098 [13a 18 11 800] ------- [17:3 24:0 32 24] [2] 0 0
r 0.141447251 _24_ MAC  --- 14 cbr 1040 [13a 18 11 800] ------- [17:3 24:0 32 24] [2] 1 0
s 0.141457251 _24_ MAC  --- 0 ACK 38 [0 11 0 0] 
r 0.141761867 _17_ MAC  --- 0 ACK 38 [0 11 0 0] 
s 0.141911251 _24_ MAC  --- 0 RTS 44 [52e 11 18 0] 
r 0.142263867 _17_ MAC  --- 0 RTS 44 [52e 11 18 0] 
s 0.142273867 _17_ MAC  --- 0 CTS 38 [3f4 18 0 0] 
r 0.142578483 _24_ MAC  --- 0 CTS 38 [3f4 18 0 0] 
s 0.142588483 _24_ MAC  --- 0 ARP 86 [13a 11 18 806] ------- [REPLY 24/24 17/17]
r 0.143277099 _17_ MAC  --- 0 ARP 28 [13a 11 18 806] ------- [REPLY 24/24 17/17]
s 0.143287099 _17_ MAC  --- 0 ACK 38 [0 18 0 0] 
r 0.143591715 _24_ MAC  --- 0 ACK 38 [0 18 0 0] 
s 0.143981715 _24_ MAC  --- 0 RTS 44 [52e 11 18 0] 
r 0.144334331 _17_ MAC  --- 0 RTS 44 [52e 11 18 0] 
s 0.144344331 _17_ MAC  --- 0 CTS 38 [3f4 18 0 0] 
r 0.144648947 _24_ MAC  --- 0 CTS 38 [3f4 18 0 0] 
s 0.144658947 _24_ MAC  --- 0 ARP 86 [13a 11 18 806] ------- [REPLY 24/24 17/17]
r 0.145347563 _17_ MAC  --- 0 ARP 28 [13a 11 18 806] ------- [REPLY 24/24 17/17]
s 0.145357563 _17_ MAC  --- 0 ACK 38 [0 18 0 0] 
r 0.145662179 _24_ MAC  --- 0 ACK 38 [0 18 0 0] 
s 0.146116512 _15_ MAC  --- 0 ARP 86 [0 ffffffff f 806] ------- [REQUEST 15/15 0/24]
r 0.146804855 _12_ MAC  --- 0 ARP 28 [0 ffffffff f 806] ------- [REQUEST 15/15 0/24]
r 0.146804900 _21_ MAC  --- 0 ARP 28 [0 ffffffff f 806] ------- [REQUEST 15/15 0/24]
r 0.146804934 _16_ MAC  --- 0 ARP 28 [0 ffffffff f 806] ------- [REQUEST 15/15 0/24]
r 0.146805022 _5_ MAC  --- 0 ARP 28 [0 ffffffff f 806] ------- [REQUEST 15/15 0/24]
r 0.146805136 _6_ MAC  --- 0 ARP 28 [0 ffffffff f 806] ------- [REQUEST 15/15 0/24]
r 0.146805176 _24_ MAC  --- 0 ARP 28 [0 ffffffff f 806] ------- [REQUEST 15/15 0/24]
r 0.146805188 _23_ MAC  --- 0 ARP 28 [0 ffffffff f 806] ------- [REQUEST 15/15 0/24]
r 0.146805255 _4_ MAC  --- 0 ARP 28 [0 ffffffff f 806] ------- [REQUEST 15/15 0/24]
r 0.146805263 _13_ MAC  --- 0 ARP 28 [0 ffffffff f 806] ------- [REQUEST 15/15 0/24]
s 0.146974512 _15_ MAC  --- 0 ARP 86 [0 ffffffff f 806] ------- [REQUEST 15/15 0/24]
r 0.147662855 _12_ MAC  --- 0 ARP 28 [0 ffffffff f 806] ------- [REQUEST 15/15 0/24]
r 0.147662900 _21_ MAC  --- 0 ARP 28 [0 ffffffff f 806] ------- [REQUEST 15/15 0/24]
r 0.147662934 _16_ MAC  --- 0 ARP 28 [0 ffffffff f 806] ------- [REQUEST 15/15 0/24]
r 0.147663022 _5_ MAC  --- 0 ARP 28 [0 ffffffff f 806] ------- [REQUEST 15/15 0/24]
r 0.147663136 _6_ MAC  --- 0 ARP 28 [0 ffffffff f 806] ------- [REQUEST 15/15 0/24]
r 0.147663176 _24_ MAC  --- 0 ARP 28 [0 ffffffff f 806] ------- [REQUEST 15/15 0/24]
r 0.147663188 _23_ MAC  --- 0 ARP 28 [0 ffffffff f 806] ------- [REQUEST 15/15 0/24]
r 0.147663255 _4_ MAC  --- 0 ARP 28 [0 ffffffff f 806] ------- [REQUEST 15/15 0/24]
r 0.147663263 _13_ MAC  --- 0 ARP 28 [0 ffffffff f 806] ------- [REQUEST 15/15 0/24]
s 0.147772512 _15_ MAC  --- 0 ARP 86 [0 ffffffff f 806] ------- [REQUEST 15/15 0/24]
r 0.148460855 _12_ MAC  --- 0 ARP 28 [0 ffffffff f 806] ------- [REQUEST 15/15 0/24]
r 0.148460900 _21_ MAC  --- 0 ARP 28 [0 ffffffff f 806] ------- [REQUEST 15/15 0/24]
r 0.148460934 _16_ MAC  --- 0 ARP 28 [0 ffffffff f 806] ------- [REQUEST 15/15 0/24]
r 0.148461022 _5_ MAC  --- 0 ARP 28 [0 ffffffff f 806] ------- [REQUEST 15/15 0/24]
r 0.148461136 _6_ MAC  --- 0 ARP 28 [0 ffffffff f 806] ------- [REQUEST 15/15 0/24]
r 0.148461176 _24_ MAC  --- 0 ARP 28 [0 ffffffff f 806] ------- [REQUEST 15/15 0/24]
r 0.148461188 _23_ MAC  --- 0 ARP 28 [0 ffffffff f 806] ------- [REQUEST 15/15 0/24]
r 0.148461255 _4_ MAC  --- 0 ARP 28 [0 ffffffff f 806] ------- [REQUEST 15/15 0/24]
r 0.148461263 _13_ MAC  --- 0 ARP 28 [0 ffffffff f 806] ------- [REQUEST 15/15 0/24]
s 0.148531176 _24_ MAC  --- 0 RTS 44 [52e f 18 0] 
r 0.148883840 _15_ MAC  --- 0 RTS 44 [52e f 18 0] 
s 0.148893840 _15_ MAC  --- 0 CTS 38 [3f4 18 0 0] 
r 0.149198504 _24_ MAC  --- 0 CTS 38 [3f4 18 0 0] 
s 0.149208504 _24_ MAC  --- 0 ARP 86 [13a f 18 806] ------- [REPLY 24/24 15/15]
r 0.149897167 _15_ MAC  --- 0 ARP 28 [13a f 18 806] ------- [REPLY 24/24 15/15]
s 0.149907167 _15_ MAC  --- 0 ACK 38 [0 18 0 0] 
r 0.150000000 _25_ RTR  --- 18 cbr 1000 [0 0 0 0] ------- [25:3 7:0 32 0] [3] 0 0
r 0.150000000 _7_ RTR  --- 19 cbr 1000 [0 0 0 0] ------- [7:3 17:0 32 0] [3] 0 0
r 0.150000000 _17_ RTR  --- 20 cbr 1000 [0 0 0 0] ------- [17:3 24:0 32 0] [3] 0 0
s 0.150000000 _17_ RTR  --- 20 cbr 1020 [0 0 0 0] ------- [17:3 24:0 32 24] [3] 0 0
r 0.150000000 _15_ RTR  --- 21 cbr 1000 [0 0 0 0] ------- [15:2 24:0 32 0] [3] 0 0
s 0.150000000 _15_ RTR  --- 21 cbr 1020 [0 0 0 0] ------- [15:2 24:0 32 24] [3] 0 0
r 0.150000000 _9_ RTR  --- 22 cbr 1000 [0 0 0 0] ------- [9:2 24:0 32 0] [3] 0 0
r 0.150211831 _24_ MAC  --- 0 ACK 38 [0 18 0 0] 
s 0.150746116 _17_ MAC  --- 0 RTS 44 [242e 18 11 0] 
r 0.151098733 _24_ MAC  --- 0 RTS 44 [242e 18 11 0] 
s 0.151108733 _24_ MAC  --- 0 CTS 38 [22f4 11 0 0] 
r 0.151413349 _17_ MAC  --- 0 CTS 38 [22f4 11 0 0] 
s 0.151423349 _17_ MAC  --- 20 cbr 1078 [13a 18 11 800] ------- [17:3 24:0 32 24] [3] 0 0
r 0.160047965 _24_ MAC  --- 20 cbr 1020 [13a 18 11 800] ------- [17:3 24:0 32 24] [3] 1 0
s 0.160057965 _24_ MAC  --- 0 ACK 38 [0 11 0 0] 
r 0.160362581 _17_ MAC  --- 0 ACK 38 [0 11 0 0] 
s 0.160531965 _24_ MAC  --- 0 RTS 44 [52e f 18 0] 
r 0.160884629 _15_ MAC  --- 0 RTS 44 [52e f 18 0] 
s 0.160894629 _15_ MAC  --- 0 CTS 38 [3f4 18 0 0] 
r 0.161199292 _24_ MAC  --- 0 CTS 38 [3f4 18 0 0] 
s 0.161209292 _24_ MAC  --- 0 ARP 86 [13a f 18 806] ------- [REPLY 24/24 15/15]
r 0.161897956 _15_ MAC  --- 0 ARP 28 [13a f 18 806] ------- [REPLY 24/24 15/15]
s 0.161907956 _15_ MAC  --- 0 ACK 38 [0 18 0 0] 
r 0.162212620 _24_ MAC  --- 0 ACK 38 [0 18 0 0] 
s 0.162281956 _15_ MAC  --- 0 RTS 44 [24ce 18 f 0] 
r 0.162634620 _24_ MAC  --- 0 RTS 44 [24ce 18 f 0] 
s 0.162644620 _24_ MAC  --- 0 CTS 38 [2394 f 0 0] 
r 0.162949284 _15_ MAC  --- 0 CTS 38 [2394 f 0 0] 
s 0.162959284 _15_ MAC  --- 15 cbr 1098 [13a 18 f 800] ------- [15:2 24:0 32 24] [2] 0 0
r 0.171743948 _24_ MAC  --- 15 cbr 1040 [13a 18 f 800] ------- [15:2 24:0 32 24] [2] 1 0
s 0.171753948 _24_ MAC  --- 0 ACK 38 [0 f 0 0] 
r 0.172058611 _15_ MAC  --- 0 ACK 38 [0 f 0 0] 
s 0.172408611 _15_ MAC  --- 0 RTS 44 [242e 18 f 0] 
r 0.172761275 _24_ MAC  --- 0 RTS 44 [242e 18 f 0] 
s 0.172771275 _24_ MAC  --- 0 CTS 38 [22f4 f 0 0] 
r 0.173075939 _15_ MAC  --- 0 CTS 38 [22f4 f 0 0] 
s 0.173085939 _15_ MAC  --- 21 cbr 1078 [13a 18 f 800] ------- [15:2 24:0 32 24] [3] 0 0
r 0.181710603 _24_ MAC  --- 21 cbr 1020 [13a 18 f 800] ------- [15:2 24:0 32 24] [3] 1 0
s 0.181720603 _24_ MAC  --- 0 ACK 38 [0 f 0 0] 
r 0.182025266 _15_ MAC  --- 0 ACK 38 [0 f 0 0] 
s 0.182314603 _24_ MAC  --- 0 RTS 44 [52e f 18 0] 
r 0.182667266 _15_ MAC  --- 0 RTS 44 [52e f 18 0] 
s 0.182677266 _15_ MAC  --- 0 CTS 38 [3f4 18 0 0] 
r 0.182981930 _24_ MAC  --- 0 CTS 38 [3f4 18 0 0] 
s 0.182991930 _24_ MAC  --- 0 ARP 86 [13a f 18 806] ------- [REPLY 24/24 15/15]
r 0.183680594 _15_ MAC  --- 0 ARP 28 [13a f 18 806] ------- [REPLY 24/24 15/15]
s 0.183690594 _15_ MAC  --- 0 ACK 38 [0 18 0 0] 
r 0.183995258 _24_ MAC  --- 0 ACK 38 [0 18 0 0] 
s 0.193738939 _0_ RTR  --- 23 message 32 [0 0 0 0] ------- [0:255 -1:255 32 0] 
s 0.194393939 _0_ MAC  --- 23 message 90 [0 ffffffff 0 800] ------- [0:255 -1:255 32 0] 
r 0.195114211 _10_ MAC  --- 23 message 32 [0 ffffffff 0 800] ------- [0:255 -1:255 32 0] 
r 0.195114311 _19_ MAC  --- 23 message 32 [0 ffffffff 0 800] ------- [0:255 -1:255 32 0] 
r 0.195114422 _1_ MAC  --- 23 message 32 [0 ffffffff 0 800] ------- [0:255 -1:255 32 0] 
r 0.195114493 _11_ MAC  --- 23 message 32 [0 ffffffff 0 800] ------- [0:255 -1:255 32 0] 
r 0.195114595 _18_ MAC  --- 23 message 32 [0 ffffffff 0 800] ------- [0:255 -1:255 32 0] 
r 0.195114681 _20_ MAC  --- 23 message 32 [0 ffffffff 0 800] ------- [0:255 -1:255 32 0] 
r 0.195114733 _8_ MAC  --- 23 message 32 [0 ffffffff 0 800] ------- [0:255 -1:255 32 0] 
r 0.195114762 _17_ MAC  --- 23 message 32 [0 ffffffff 0 800] ------- [0:255 -1:255 32 0] 
r 0.195139211 _10_ RTR  --- 23 message 32 [0 ffffffff 0 800] ------- [0:255 -1:255 32 0] 
r 0.195139311 _19_ RTR  --- 23 message 32 [0 ffffffff 0 800] ------- [0:255 -1:255 32 0] 
r 0.195139422 _1_ RTR  --- 23 message 32 [0 ffffffff 0 800] ------- [0:255 -1:255 32 0] 
r 0.195139493 _11_ RTR  --- 23 message 32 [0 ffffffff 0 800] ------- [0:255 -1:255 32 0] 
r 0.195139595 _18_ RTR  --- 23 message 32 [0 ffffffff 0 800] ------- [0:255 -1:255 32 0] 
r 0.195139681 _20_ RTR  --- 23 message 32 [0 ffffffff 0 800] ------- [0:255 -1:255 32 0] 
r 0.195139733 _8_ RTR  --- 23 message 32 [0 ffffffff 0 800] ------- [0:255 -1:255 32 0] 
r 0.195139762 _17_ RTR  --- 23 message 32 [0 ffffffff 0 800] ------- [0:255 -1:255 32 0] 
r 0.200000000 _25_ RTR  --- 24 cbr 1000 [0 0 0 0] ------- [25:3 7:0 32 0] [4] 0 0
r 0.200000000 _7_ RTR  --- 25 cbr 1000 [0 0 0 0] ------- [7:3 17:0 32 0] [4] 0 0
r 0.200000000 _17_ RTR  --- 26 cbr 1000 [0 0 0 0] ------- [17:3 24:0 32 0] [4] 0 0
s 0.200000000 _17_ RTR  --- 26 cbr 1020 [0 0 0 0] ------- [17:3 24:0 32 24] [4] 0 0
r 0.200000000 _15_ RTR  --- 27 cbr 1000 [0 0 0 0] ------- [15:2 24:0 32 0] [4] 0 0
s 0.200000000 _15_ RTR  --- 27 cbr 1020 [0 0 0 0] ------- [15:2 24:0 32 24] [4] 0 0
r 0.200000000 _9_ RTR  --- 28 cbr 1000 [0 0 0 0] ------- [9:2 24:0 32 0] [4] 0 0
s 0.200235000 _15_ MAC  --- 0 RTS 44 [242e 18 f 0] 
r 0.200587664 _24_ MAC  --- 0 RTS 44 [242e 18 f 0] 
s 0.200597664 _24_ MAC  --- 0 CTS 38 [22f4 f 0 0] 
r 0.200902328 _15_ MAC  --- 0 CTS 38 [22f4 f 0 0] 
s 0.200912328 _15_ MAC  --- 27 cbr 1078 [13a 18 f 800] ------- [15:2 24:0 32 24] [4] 0 0
r 0.209536991 _24_ MAC  --- 27 cbr 1020 [13a 18 f 800] ------- [15:2 24:0 32 24] [4] 1 0
s 0.209546991 _24_ MAC  --- 0 ACK 38 [0 f 0 0] 
r 0.209851655 _15_ MAC  --- 0 ACK 38 [0 f 0 0] 
s 0.209971277 _17_ MAC  --- 0 RTS 44 [242e 18 11 0] 
r 0.210323893 _24_ MAC  --- 0 RTS 44 [242e 18 11 0] 
s 0.210333893 _24_ MAC  --- 0 CTS 38 [22f4 11 0 0] 
r 0.210638509 _17_ MAC  --- 0 CTS 38 [22f4 11 0 0] 
s 0.210648509 _17_ MAC  --- 26 cbr 1078 [13a 18 11 800] ------- [17:3 24:0 32 24] [4] 0 0
s 0.218724867 _17_ RTR  --- 29 message 44 [0 0 0 0] ------- [17:255 -1:255 32 0] 
r 0.219273125 _24_ MAC  --- 26 cbr 1020 [13a 18 11 800] ------- [17:3 24:0 32 24] [4] 1 0
s 0.219283125 _24_ MAC  --- 0 ACK 38 [0 11 0 0] 
r 0.219587741 _17_ MAC  --- 0 ACK 38 [0 11 0 0] 
s 0.219797741 _17_ MAC  --- 29 message 102 [0 ffffffff 11 800] ------- [17:255 -1:255 32 0] 
r 0.220614043 _20_ MAC  --- 29 message 44 [0 ffffffff 11 800] ------- [17:255 -1:255 32 0] 
r 0.220614052 _7_ MAC  --- 29 message 44 [0 ffffffff 11 800] ------- [17:255 -1:255 32 0] 
r 0.220614103 _11_ MAC  --- 29 message 44 [0 ffffffff 11 800] ------- [17:255 -1:255 32 0] 
r 0.220614192 _1_ MAC  --- 29 message 44 [0 ffffffff 11 800] ------- [17:255 -1:255 32 0] 
r 0.220614301 _9_ MAC  --- 29 message 44 [0 ffffffff 11 800] ------- [17:255 -1:255 32 0] 
r 0.220614314 _10_ MAC  --- 29 message 44 [0 ffffffff 11 800] ------- [17:255 -1:255 32 0] 
r 0.220614336 _18_ MAC  --- 29 message 44 [0 ffffffff 11 800] ------- [17:255 -1:255 32 0] 
r 0.220614357 _24_ MAC  --- 29 message 44 [0 ffffffff 11 800] ------- [17:255 -1:255 32 0] 
r 0.220614563 _0_ MAC  --- 29 message 44 [0 ffffffff 11 800] ------- [17:255 -1:255 32 0] 
r 0.220614574 _22_ MAC  --- 29 message 44 [0 ffffffff 11 800] ------- [17:255 -1:255 32 0] 
r 0.220639043 _20_ RTR  --- 29 message 44 [0 ffffffff 11 800] ------- [17:255 -1:255 32 0] 
r 0.220639052 _7_ RTR  --- 29 message 44 [0 ffffffff 11 800] ------- [17:255 -1:255 32 0] 
s 0.220639052 _7_ RTR  --- 1 cbr 1040 [0 0 0 0] ------- [7:3 17:0 32 17] [0] 0 0
s 0.220639052 _7_ RTR  --- 7 cbr 1040 [0 0 0 0] ------- [7:3 17:0 32 17] [1] 0 0
s 0.220639052 _7_ RTR  --- 13 cbr 1040 [0 0 0 0] ------- [7:3 17:0 32 17] [2] 0 0
s 0.220639052 _7_ RTR  --- 19 cbr 1040 [0 0 0 0] ------- [7:3 17:0 32 17] [3] 0 0
s 0.220639052 _7_ RTR  --- 25 cbr 1040 [0 0 0 0] ------- [7:3 17:0 32 17] [4] 0 0
r 0.220639103 _11_ RTR  --- 29 message 44 [0 ffffffff 11 800] ------- [17:255 -1:255 32 0] 
r 0.220639192 _1_ RTR  --- 29 message 44 [0 ffffffff 11 800] ------- [17:255 -1:255 32 0] 
r 0.220639301 _9_ RTR  --- 29 message 44 [0 ffffffff 11 800] ------- [17:255 -1:255 32 0] 
s 0.220639301 _9_ RTR  --- 4 cbr 1040 [0 0 0 0] ------- [9:2 24:0 32 17] [0] 0 0
s 0.220639301 _9_ RTR  --- 10 cbr 1040 [0 0 0 0] ------- [9:2 24:0 32 17] [1] 0 0
s 0.220639301 _9_ RTR  --- 16 cbr 1040 [0 0 0 0] ------- [9:2 24:0 32 17] [2] 0 0
s 0.220639301 _9_ RTR  --- 22 cbr 1040 [0 0 0 0] ------- [9:2 24:0 32 17] [3] 0 0
s 0.220639301 _9_ RTR  --- 28 cbr 1040 [0 0 0 0] ------- [9:2 24:0 32 17] [4] 0 0
r 0.220639314 _10_ RTR  --- 29 message 44 [0 ffffffff 11 800] ------- [17:255 -1:255 32 0] 
r 0.220639336 _18_ RTR  --- 29 message 44 [0 ffffffff 11 800] ------- [17:255 -1:255 32 0] 
r 0.220639357 _24_ RTR  --- 29 message 44 [0 ffffffff 11 800] ------- [17:255 -1:255 32 0] 
r 0.220639563 _0_ RTR  --- 29 message 44 [0 ffffffff 11 800] ------- [17:255 -1:255 32 0] 
r 0.220639574 _22_ RTR  --- 29 message 44 [0 ffffffff 11 800] ------- [17:255 -1:255 32 0] 
s 0.220714052 _7_ MAC  --- 0 RTS 44 [24ce 11 7 0] 
r 0.221066363 _17_ MAC  --- 0 RTS 44 [24ce 11 7 0] 
s 0.221076363 _17_ MAC  --- 0 CTS 38 [2394 7 0 0] 
r 0.221380675 _7_ MAC  --- 0 CTS 38 [2394 7 0 0] 
s 0.221390675 _7_ MAC  --- 1 cbr 1098 [13a 11 7 800] ------- [7:3 17:0 32 17] [0] 0 0
r 0.230174986 _17_ MAC  --- 1 cbr 1040 [13a 11 7 800] ------- [7:3 17:0 32 17] [0] 1 0
s 0.230184986 _17_ MAC  --- 0 ACK 38 [0 7 0 0] 
r 0.230489297 _7_ MAC  --- 0 ACK 38 [0 7 0 0] 
s 0.230679546 _9_ MAC  --- 0 RTS 44 [24ce 11 9 0] 
r 0.231032106 _17_ MAC  --- 0 RTS 44 [24ce 11 9 0] 
s 0.231042106 _17_ MAC  --- 0 CTS 38 [2394 9 0 0] 
r 0.231346666 _9_ MAC  --- 0 CTS 38 [2394 9 0 0] 
s 0.231356666 _9_ MAC  --- 4 cbr 1098 [13a 11 9 800] ------- [9:2 24:0 32 17] [0] 0 0
s 0.232862588 _23_ RTR  --- 30 message 32 [0 0 0 0] ------- [23:255 -1:255 32 0] 
r 0.240141226 _17_ MAC  --- 4 cbr 1040 [13a 11 9 800] ------- [9:2 24:0 32 17] [0] 1 0
s 0.240151226 _17_ MAC  --- 0 ACK 38 [0 9 0 0] 
r 0.240166226 _17_ RTR  --- 4 cbr 1040 [13a 11 9 800] ------- [9:2 24:0 32 17] [0] 1 0
f 0.240166226 _17_ RTR  --- 4 cbr 1040 [13a 11 9 800] ------- [9:2 24:0 31 24] [0] 1 0
r 0.240455786 _9_ MAC  --- 0 ACK 38 [0 9 0 0] 
s 0.240545226 _17_ MAC  --- 0 RTS 44 [24ce 18 11 0] 
r 0.240897842 _24_ MAC  --- 0 RTS 44 [24ce 18 11 0] 
s 0.240907842 _24_ MAC  --- 0 CTS 38 [2394 11 0 0] 
r 0.241212458 _17_ MAC  --- 0 CTS 38 [2394 11 0 0] 
s 0.241222458 _17_ MAC  --- 4 cbr 1098 [13a 18 11 800] ------- [9:2 24:0 31 24] [0] 1 0
r 0.250000000 _25_ RTR  --- 32 cbr 1000 [0 0 0 0] ------- [25:3 7:0 32 0] [5] 0 0
D 0.250000000 _25_ RTR  IFQ 0 cbr 1020 [0 0 0 0] ------- [25:3 7:0 32 0] [0] 0 0
r 0.250000000 _7_ RTR  --- 33 cbr 1000 [0 0 0 0] ------- [7:3 17:0 32 0] [5] 0 0
s 0.250000000 _7_ RTR  --- 33 cbr 1020 [0 0 0 0] ------- [7:3 17:0 32 17] [5] 0 0
r 0.250000000 _17_ RTR  --- 34 cbr 1000 [0 0 0 0] ------- [17:3 24:0 32 0] [5] 0 0
s 0.250000000 _17_ RTR  --- 34 cbr 1020 [0 0 0 0] ------- [17:3 24:0 32 24] [5] 0 0
r 0.250000000 _15_ RTR  --- 35 cbr 1000 [0 0 0 0] ------- [15:2 24:0 32 0] [5] 0 0
s 0.250000000 _15_ RTR  --- 35 cbr 1020 [0 0 0 0] ------- [15:2 24:0 32 24] [5] 0 0
r 0.250000000 _9_ RTR  --- 36 cbr 1000 [0 0 0 0] ------- [9:2 24:0 32 0] [5] 0 0
s 0.250000000 _9_ RTR  --- 36 cbr 1020 [0 0 0 0] ------- [9:2 24:0 32 17] [5] 0 0
r 0.250007074 _24_ MAC  --- 4 cbr 1040 [13a 18 11 800] ------- [9:2 24:0 31 24] [0] 2 0
s 0.250017074 _24_ MAC  --- 0 ACK 38 [0 11 0 0] 
r 0.250321690 _17_ MAC  --- 0 ACK 38 [0 11 0 0] 
s 0.250611878 _7_ MAC  --- 0 RTS 44 [24ce 11 7 0] 
r 0.250964189 _17_ MAC  --- 0 RTS 44 [24ce 11 7 0] 
s 0.250974189 _17_ MAC  --- 0 CTS 38 [2394 7 0 0] 
r 0.251278500 _7_ MAC  --- 0 CTS 38 [2394 7 0 0] 
s 0.251288500 _7_ MAC  --- 7 cbr 1098 [13a 11 7 800] ------- [7:3 17:0 32 17] [1] 0 0
s 0.252360558 _28_ RTR  --- 31 message 32 [0 0 0 0] ------- [28:255 -1:255 32 0] 
r 0.260072812 _17_ MAC  --- 7 cbr 1040 [13a 11 7 800] ------- [7:3 17:0 32 17] [1] 1 0
s 0.260082812 _17_ MAC  --- 0 ACK 38 [0 7 0 0] 
r 0.260387123 _7_ MAC  --- 0 ACK 38 [0 7 0 0] 
s 0.260437123 _7_ MAC  --- 0 RTS 44 [24ce 11 7 0] 
r 0.260789434 _17_ MAC  --- 0 RTS 44 [24ce 11 7 0] 
s 0.260799434 _17_ MAC  --- 0 CTS 38 [2394 7 0 0] 
r 0.261103746 _7_ MAC  --- 0 CTS 38 [2394 7 0 0] 
s 0.261113746 _7_ MAC  --- 13 cbr 1098 [13a 11 7 800] ------- [7:3 17:0 32 17] [2] 0 0
r 0.269898057 _17_ MAC  --- 13 cbr 1040 [13a 11 7 800] ------- [7:3 17:0 32 17] [2] 1 0
s 0.269908057 _17_ MAC  --- 0 ACK 38 [0 7 0 0] 
r 0.270212368 _7_ MAC  --- 0 ACK 38 [0 7 0 0] 
s 0.270282057 _17_ MAC  --- 0 RTS 44 [242e 18 11 0] 
r 0.270634673 _24_ MAC  --- 0 RTS 44 [242e 18 11 0] 
s 0.270644673 _24_ MAC  --- 0 CTS 38 [22f4 11 0 0] 
r 0.270949289 _17_ MAC  --- 0 CTS 38 [22f4 11 0 0] 
s 0.270959289 _17_ MAC  --- 34 cbr 1078 [13a 18 11 800] ------- [17:3 24:0 32 24] [5] 0 0
r 0.279583905 _24_ MAC  --- 34 cbr 1020 [13a 18 11 800] ------- [17:3 24:0 32 24] [5] 1 0
s 0.279593905 _24_ MAC  --- 0 ACK 38 [0 11 0 0] 
r 0.279898521 _17_ MAC  --- 0 ACK 38 [0 11 0 0] 
s 0.279988709 _7_ MAC  --- 0 RTS 44 [24ce 11 7 0] 
r 0.280341020 _17_ MAC  --- 0 RTS 44 [24ce 11 7 0] 
s 0.280351020 _17_ MAC  --- 0 CTS 38 [2394 7 0 0] 
r 0.280655332 _7_ MAC  --- 0 CTS 38 [2394 7 0 0] 
s 0.280665332 _7_ MAC  --- 19 cbr 1098 [13a 11 7 800] ------- [7:3 17:0 32 17] [3] 0 0
r 0.289449643 _17_ MAC  --- 19 cbr 1040 [13a 11 7 800] ------- [7:3 17:0 32 17] [3] 1 0
s 0.289459643 _17_ MAC  --- 0 ACK 38 [0 7 0 0] 
r 0.289763954 _7_ MAC  --- 0 ACK 38 [0 7 0 0] 
s 0.290074203 _9_ MAC  --- 0 RTS 44 [24ce 11 9 0] 
r 0.290426763 _17_ MAC  --- 0 RTS 44 [24ce 11 9 0] 
s 0.290436763 _17_ MAC  --- 0 CTS 38 [2394 9 0 0] 
r 0.290741323 _9_ MAC  --- 0 CTS 38 [2394 9 0 0] 
s 0.290751323 _9_ MAC  --- 10 cbr 1098 [13a 11 9 800] ------- [9:2 24:0 32 17] [1] 0 0
r 0.299535883 _17_ MAC  --- 10 cbr 1040 [13a 11 9 800] ------- [9:2 24:0 32 17] [1] 1 0
s 0.299545883 _17_ MAC  --- 0 ACK 38 [0 9 0 0] 
r 0.299560883 _17_ RTR  --- 10 cbr 1040 [13a 11 9 800] ------- [9:2 24:0 32 17] [1] 1 0
f 0.299560883 _17_ RTR  --- 10 cbr 1040 [13a 11 9 800] ------- [9:2 24:0 31 24] [1] 1 0
r 0.299850442 _9_ MAC  --- 0 ACK 38 [0 9 0 0] 
r 0.300000000 _25_ RTR  --- 37 cbr 1000 [0 0 0 0] ------- [25:3 7:0 32 0] [6] 0 0
D 0.300000000 _25_ RTR  IFQ 6 cbr 1020 [0 0 0 0] ------- [25:3 7:0 32 0] [1] 0 0
r 0.300000000 _7_ RTR  --- 38 cbr 1000 [0 0 0 0] ------- [7:3 17:0 32 0] [6] 0 0
s 0.300000000 _7_ RTR  --- 38 cbr 1020 [0 0 0 0] ------- [7:3 17:0 32 17] [6] 0 0
r 0.300000000 _17_ RTR  --- 39 cbr 1000 [0 0 0 0] ------- [17:3 24:0 32 0] [6] 0 0
s 0.300000000 _17_ RTR  --- 39 cbr 1020 [0 0 0 0] ------- [17:3 24:0 32 24] [6] 0 0
r 0.300000000 _15_ RTR  --- 40 cbr 1000 [0 0 0 0] ------- [15:2 24:0 32 0] [6] 0 0
s 0.300000000 _15_ RTR  --- 40 cbr 1020 [0 0 0 0] ------- [15:2 24:0 32 24] [6] 0 0
r 0.300000000 _9_ RTR  --- 41 cbr 1000 [0 0 0 0] ------- [9:2 24:0 32 0] [6] 0 0
s 0.300000000 _9_ RTR  --- 41 cbr 1020 [0 0 0 0] ------- [9:2 24:0 32 17] [6] 0 0
s 0.300119883 _17_ MAC  --- 0 RTS 44 [24ce 18 11 0] 
r 0.300472499 _24_ MAC  --- 0 RTS 44 [24ce 18 11 0] 
s 0.300482499 _24_ MAC  --- 0 CTS 38 [2394 11 0 0] 
r 0.300787115 _17_ MAC  --- 0 CTS 38 [2394 11 0 0] 
s 0.300797115 _17_ MAC  --- 10 cbr 1098 [13a 18 11 800] ------- [9:2 24:0 31 24] [1] 1 0
r 0.309581731 _24_ MAC  --- 10 cbr 1040 [13a 18 11 800] ------- [9:2 24:0 31 24] [1] 2 0
s 0.309591731 _24_ MAC  --- 0 ACK 38 [0 11 0 0] 
r 0.309896347 _17_ MAC  --- 0 ACK 38 [0 11 0 0] 
s 0.309966347 _17_ MAC  --- 0 RTS 44 [242e 18 11 0] 
r 0.310318963 _24_ MAC  --- 0 RTS 44 [242e 18 11 0] 
s 0.310328963 _24_ MAC  --- 0 CTS 38 [22f4 11 0 0] 
r 0.310633579 _17_ MAC  --- 0 CTS 38 [22f4 11 0 0] 
s 0.310643579 _17_ MAC  --- 39 cbr 1078 [13a 18 11 800] ------- [17:3 24:0 32 24] [6] 0 0
r 0.319268195 _24_ MAC  --- 39 cbr 1020 [13a 18 11 800] ------- [17:3 24:0 32 24] [6] 1 0
s 0.319278195 _24_ MAC  --- 0 ACK 38 [0 11 0 0] 
r 0.319582811 _17_ MAC  --- 0 ACK 38 [0 11 0 0] 